<?xml version="1.0"?> 
<VTKFile type="UnstructuredGrid"  version="0.1"   >
<UnstructuredGrid>  
<Piece  NumberOfPoints="     3084"  NumberOfCells="    15082">  
<Points>  
<DataArray  type="Float32"  NumberOfComponents="3"  format="ascii">  
 0.000000 -5.000000 -5.000000 
 1.006490 -4.897650 -5.000000 
 1.971780 -4.594790 -5.000000 
 2.856340 -4.103820 -5.000000 
 3.623960 -3.444830 -5.000000 
 4.243220 -2.644820 -5.000000 
 4.688760 -1.736530 -5.000000 
 4.942340 -0.757139 -5.000000 
 4.993580 0.253245 -5.000000 
 4.840390 1.253260 -5.000000 
 4.489020 2.201970 -5.000000 
 3.953880 3.060530 -5.000000 
 3.256860 3.793790 -5.000000 
 2.426510 4.371730 -5.000000 
 1.496820 4.770700 -5.000000 
 0.505842 4.974350 -5.000000 
 -0.505841 4.974350 -5.000000 
 -1.496820 4.770700 -5.000000 
 -2.426510 4.371730 -5.000000 
 -3.256860 3.793790 -5.000000 
 -3.953880 3.060530 -5.000000 
 -4.489020 2.201970 -5.000000 
 -4.840390 1.253260 -5.000000 
 -4.993580 0.253247 -5.000000 
 -4.942340 -0.757138 -5.000000 
 -4.688760 -1.736530 -5.000000 
 -4.243220 -2.644820 -5.000000 
 -3.623960 -3.444830 -5.000000 
 -2.856340 -4.103820 -5.000000 
 -1.971780 -4.594790 -5.000000 
 -1.006490 -4.897650 -5.000000 
 0.000000 5.000000 6.000000 
 1.006490 4.897650 6.000000 
 1.971780 4.594790 6.000000 
 2.856340 4.103820 6.000000 
 3.623960 3.444830 6.000000 
 4.243220 2.644820 6.000000 
 4.688760 1.736530 6.000000 
 4.942340 0.757139 6.000000 
 4.993580 -0.253245 6.000000 
 4.840390 -1.253260 6.000000 
 4.489020 -2.201970 6.000000 
 3.953880 -3.060530 6.000000 
 3.256860 -3.793790 6.000000 
 2.426510 -4.371730 6.000000 
 1.496820 -4.770700 6.000000 
 0.505842 -4.974350 6.000000 
 -0.505841 -4.974350 6.000000 
 -1.496820 -4.770700 6.000000 
 -2.426510 -4.371730 6.000000 
 -3.256860 -3.793790 6.000000 
 -3.953880 -3.060530 6.000000 
 -4.489020 -2.201970 6.000000 
 -4.840390 -1.253260 6.000000 
 -4.993580 -0.253247 6.000000 
 -4.942340 0.757138 6.000000 
 -4.688760 1.736530 6.000000 
 -4.243220 2.644820 6.000000 
 -3.623960 3.444830 6.000000 
 -2.856340 4.103820 6.000000 
 -1.971780 4.594790 6.000000 
 -1.006490 4.897650 6.000000 
 0.000000 0.500000 1.000000 
 0.100649 0.489765 1.000000 
 0.197178 0.459479 1.000000 
 0.285634 0.410382 1.000000 
 0.362396 0.344483 1.000000 
 0.424322 0.264482 1.000000 
 0.468876 0.173653 1.000000 
 0.494234 0.075714 1.000000 
 0.499358 -0.025325 1.000000 
 0.484039 -0.125326 1.000000 
 0.448902 -0.220197 1.000000 
 0.395388 -0.306053 1.000000 
 0.325686 -0.379379 1.000000 
 0.242651 -0.437173 1.000000 
 0.149682 -0.477070 1.000000 
 0.050584 -0.497435 1.000000 
 -0.050584 -0.497435 1.000000 
 -0.149681 -0.477070 1.000000 
 -0.242651 -0.437173 1.000000 
 -0.325686 -0.379379 1.000000 
 -0.395388 -0.306053 1.000000 
 -0.448902 -0.220197 1.000000 
 -0.484039 -0.125326 1.000000 
 -0.499358 -0.025325 1.000000 
 -0.494234 0.075714 1.000000 
 -0.468876 0.173653 1.000000 
 -0.424322 0.264482 1.000000 
 -0.362396 0.344483 1.000000 
 -0.285634 0.410382 1.000000 
 -0.197178 0.459479 1.000000 
 -0.100649 0.489765 1.000000 
 0.000000 0.500000 0.000000 
 0.100649 0.489765 0.000000 
 0.197178 0.459479 0.000000 
 0.285634 0.410382 0.000000 
 0.362396 0.344483 0.000000 
 0.424322 0.264482 0.000000 
 0.468876 0.173653 0.000000 
 0.494234 0.075714 0.000000 
 0.499358 -0.025325 0.000000 
 0.484039 -0.125326 0.000000 
 0.448902 -0.220197 0.000000 
 0.395388 -0.306053 0.000000 
 0.325686 -0.379379 0.000000 
 0.242651 -0.437173 0.000000 
 0.149682 -0.477070 0.000000 
 0.050584 -0.497435 0.000000 
 -0.050584 -0.497435 0.000000 
 -0.149681 -0.477070 0.000000 
 -0.242651 -0.437173 0.000000 
 -0.325686 -0.379379 0.000000 
 -0.395388 -0.306053 0.000000 
 -0.448902 -0.220197 0.000000 
 -0.484039 -0.125326 0.000000 
 -0.499358 -0.025325 0.000000 
 -0.494234 0.075714 0.000000 
 -0.468876 0.173653 0.000000 
 -0.424322 0.264482 0.000000 
 -0.362396 0.344483 0.000000 
 -0.285634 0.410382 0.000000 
 -0.197178 0.459479 0.000000 
 -0.100649 0.489765 0.000000 
 0.508679 -4.974060 -4.128460 
 2.427400 -4.371240 -4.129270 
 3.954420 -3.059830 -4.132050 
 4.840660 -1.252200 -4.131510 
 4.942130 0.758508 -4.131830 
 4.242680 2.645690 -4.132720 
 2.855130 4.104660 -4.133580 
 1.004980 4.897960 -4.132870 
 -1.008710 4.897190 -4.133930 
 -2.859350 4.101720 -4.136960 
 -4.245260 2.641540 -4.133090 
 -4.942610 0.755402 -4.131140 
 -4.840390 -1.253240 -4.129420 
 -3.953530 -3.060980 -4.131250 
 -2.425090 -4.372520 -4.133190 
 -0.502286 -4.974710 -4.130090 
 0.510160 4.973910 5.123470 
 2.429870 4.369860 5.123200 
 3.957200 3.056230 5.120780 
 4.841690 1.248230 5.118570 
 4.941920 -0.759882 5.121400 
 4.243650 -2.644130 5.131080 
 2.855220 -4.104590 5.129620 
 1.005730 -4.897810 5.126700 
 -1.008670 -4.897200 5.129150 
 -2.858010 -4.102660 5.128100 
 -4.243690 -2.644070 5.129750 
 -4.942400 -0.756763 5.127860 
 -4.840640 1.252280 5.129980 
 -3.954120 3.060220 5.132180 
 -2.425400 4.372350 5.131500 
 -0.500964 4.974840 5.125010 
 1.499070 -4.769990 -4.127200 
 3.257480 -3.793260 -4.131070 
 4.489540 -2.200910 -4.131330 
 4.993660 -0.251761 -4.131220 
 4.688270 1.737840 -4.131730 
 3.623090 3.445760 -4.133260 
 1.970020 4.595540 -4.132950 
 -0.002098 5.000000 -4.132900 
 -1.974710 4.593530 -4.136010 
 -3.627470 3.441140 -4.135580 
 -4.689770 1.733800 -4.131230 
 -4.993530 -0.254200 -4.129690 
 -4.489120 -2.201780 -4.129560 
 -3.255920 -3.794600 -4.132230 
 -1.493910 -4.771610 -4.132200 
 1.501320 4.769280 5.121740 
 3.261270 3.790000 5.120890 
 4.492060 2.195770 5.117330 
 4.993850 0.247839 5.117450 
 4.688550 -1.737080 5.125390 
 3.623820 -3.444990 5.132060 
 1.970490 -4.595340 5.125860 
 -0.001578 -5.000000 5.127890 
 -1.974630 -4.593560 5.127910 
 -3.624820 -3.443930 5.128510 
 -4.689060 -1.735730 5.128650 
 -4.993620 0.252427 5.127690 
 -4.489460 2.201080 5.131440 
 -3.256960 3.793710 5.132070 
 -1.493310 4.771790 5.128550 
 1.016820 -4.895520 -3.246200 
 4.245450 -2.641250 -3.258400 
 4.943110 -0.752116 -3.253980 
 4.838870 1.259080 -3.255110 
 3.951030 3.064200 -3.261990 
 2.419760 4.375470 -3.263220 
 0.499096 4.975030 -3.262500 
 -1.506520 4.767640 -3.273330 
 -3.267610 3.784540 -3.278720 
 -4.492610 2.194640 -3.256910 
 -4.993660 0.251787 -3.256010 
 -4.689760 -1.733830 -3.250240 
 -3.621980 -3.446920 -3.257010 
 -1.965350 -4.597540 -3.265370 
 2.871730 4.093060 4.231900 
 1.988610 4.587530 4.230030 
 4.255660 2.624750 4.222220 
 4.945630 0.735356 4.217020 
 4.837700 -1.263600 4.232720 
 3.953700 -3.060770 4.264990 
 2.422670 -4.373860 4.245740 
 0.501223 -4.974810 4.246560 
 -1.506830 -4.767540 4.253810 
 -3.261140 -3.790120 4.252320 
 -4.489780 -2.200420 4.257250 
 -4.993470 -0.255425 4.244320 
 -4.690380 1.732150 4.255840 
 -3.625960 3.442730 4.260450 
 -1.967470 4.596640 4.261500 
 3.627320 -3.441300 -3.261520 
 1.023990 4.894020 4.231000 
 2.860400 -4.100990 -3.258510 
 0.013711 -4.999980 -3.251440 
 0.016886 4.999970 4.237040 
 4.690450 -1.731950 -3.253120 
 4.993230 0.260031 -3.253170 
 4.486440 2.207220 -3.256770 
 3.251550 3.798340 -3.264130 
 1.488560 4.773280 -3.260570 
 -0.515466 4.973360 -3.266810 
 -2.437620 4.365550 -3.280950 
 -3.962720 3.049070 -3.266420 
 -4.841240 1.249950 -3.255670 
 -4.942640 -0.755170 -3.250580 
 -4.243600 -2.644220 -3.251620 
 -2.852190 -4.106710 -3.261210 
 -0.994160 -4.900170 -3.260390 
 1.979320 -4.591540 -3.248720 
 3.640750 3.427090 4.226620 
 4.697890 1.711670 4.214940 
 4.992520 -0.273446 4.218710 
 4.487350 -2.205370 4.250660 
 3.253660 -3.796540 4.260000 
 1.492860 -4.771940 4.238610 
 -0.514280 -4.973480 4.252520 
 -2.436070 -4.366410 4.250480 
 -3.955720 -3.058150 4.257000 
 -4.840470 -1.252920 4.249470 
 -4.943200 0.751537 4.246260 
 -4.245010 2.641950 4.258050 
 -2.857540 4.102980 4.262730 
 -0.994045 4.900190 4.249780 
 3.991910 3.010750 3.313150 
 4.938880 0.779394 -2.359690 
 4.494000 -2.191790 -2.361900 
 -3.262510 3.788940 3.384530 
 4.994600 -0.232349 -2.357130 
 4.844430 -1.237550 -2.354660 
 4.233000 2.661150 -2.374980 
 2.835550 4.118210 -2.390010 
 0.982301 4.902560 -2.378910 
 -1.036240 4.891440 -2.408650 
 -2.878190 4.088520 -2.439090 
 -4.250850 2.632550 -2.370720 
 -4.941720 0.761162 -2.377360 
 -4.844000 -1.239220 -2.355600 
 -3.950690 -3.064650 -2.364130 
 1.525740 -4.761520 -2.351340 
 -1.482900 4.775040 3.386270 
 -1.473020 -4.778100 -2.397430 
 4.856020 1.191230 3.290980 
 4.934430 -0.807072 3.307600 
 4.236290 -2.655910 3.390240 
 2.846330 -4.110770 3.367110 
 0.991150 -4.900780 3.341650 
 -1.034180 -4.891880 3.379460 
 -2.875190 -4.090630 3.366540 
 -4.245350 -2.641410 3.392240 
 -4.941490 -0.762693 3.348590 
 -4.843490 1.241200 3.357880 
 -3.956480 3.057170 3.376010 
 3.301890 3.754670 3.325660 
 1.540420 4.756800 3.320970 
 3.269570 -3.782840 -2.394640 
 0.542443 -4.970490 -2.354200 
 0.547297 4.969960 3.326580 
 3.964150 -3.047210 -2.381530 
 -2.410570 -4.380540 -2.391020 
 2.474180 4.344930 3.324260 
 -2.426000 4.372020 3.398360 
 4.680110 1.759720 -2.361530 
 3.608040 3.461510 -2.386120 
 1.943090 4.607000 -2.378740 
 -0.026887 4.999930 -2.394030 
 -1.998950 4.583030 -2.428170 
 -3.641850 3.425920 -2.413530 
 -4.688730 1.736620 -2.366290 
 -4.994100 -0.242782 -2.366970 
 -4.492710 -2.194430 -2.356170 
 -3.245860 -3.803210 -2.372650 
 4.518610 2.140600 3.294800 
 -0.476617 4.977230 3.351470 
 2.447480 -4.360030 -2.374430 
 4.996410 0.189561 3.291060 
 4.676030 -1.770520 3.340820 
 3.614980 -3.454260 3.403850 
 1.960800 -4.599480 3.330560 
 -0.022808 -4.999950 3.365490 
 -2.002450 -4.581500 3.372020 
 -3.631690 -3.436690 3.381390 
 -4.688920 -1.736100 3.376720 
 -4.994090 0.243088 3.334720 
 -4.492630 2.194600 3.375100 
 -0.469379 -4.977920 -2.377930 
 -4.244210 -2.643240 -1.456330 
 3.919110 3.104930 -1.489000 
 4.948880 -0.713179 -1.437070 
 0.058380 4.999660 2.423400 
 4.459710 2.260740 -1.454340 
 -0.943408 -4.910190 -1.527060 
 2.363140 4.406310 -1.497950 
 -4.693590 1.723420 2.479630 
 0.441556 4.980460 -1.496770 
 -1.572700 4.746220 -1.558300 
[...]
<PointData  Scalars="U"> 
<DataArray  type="Float32"  Name="U"  format="ascii">
 0.000000e+00
 0.000000e+00
 0.000000e+00
 0.000000e+00
 0.000000e+00
 0.000000e+00
 0.000000e+00
 0.000000e+00
 0.000000e+00
 0.000000e+00
 0.000000e+00
 0.000000e+00
 0.000000e+00
 0.000000e+00
 0.000000e+00
 0.000000e+00
 0.000000e+00
 0.000000e+00
 0.000000e+00
 0.000000e+00
 0.000000e+00
 0.000000e+00
 0.000000e+00
 0.000000e+00
 0.000000e+00
 0.000000e+00
 0.000000e+00
 0.000000e+00
 0.000000e+00
 0.000000e+00
 0.000000e+00
 0.000000e+00
 0.000000e+00
 0.000000e+00
 0.000000e+00
 0.000000e+00
 0.000000e+00
 0.000000e+00
 0.000000e+00
 0.000000e+00
 0.000000e+00
 0.000000e+00
 0.000000e+00
 0.000000e+00
 0.000000e+00
 0.000000e+00
 0.000000e+00
 0.000000e+00
 0.000000e+00
 0.000000e+00
 0.000000e+00
 0.000000e+00
 0.000000e+00
 0.000000e+00
 0.000000e+00
 0.000000e+00
 0.000000e+00
 0.000000e+00
 0.000000e+00
 0.000000e+00
 0.000000e+00
 0.000000e+00
 4.783916e-01
 4.831886e-01
 4.831754e-01
 4.812054e-01
 4.806858e-01
 4.837147e-01
 4.823464e-01
 4.794189e-01
 4.767379e-01
 4.797177e-01
 4.842731e-01
 4.826239e-01
 4.823090e-01
 4.835530e-01
 4.855273e-01
 4.794867e-01
 4.844875e-01
 4.799615e-01
 4.862178e-01
 4.805348e-01
 4.824741e-01
 4.825535e-01
 4.764561e-01
 4.809550e-01
 4.782626e-01
 4.843214e-01
 4.811640e-01
 4.838063e-01
 4.836458e-01
 4.823802e-01
 4.824706e-01
 4.776870e-01
 4.816318e-01
 4.827477e-01
 4.813885e-01
 4.818565e-01
 4.825287e-01
 4.806863e-01
 4.765371e-01
 4.815932e-01
 4.816319e-01
 4.847520e-01
 4.821736e-01
 4.835355e-01
 4.824661e-01
 4.815212e-01
 4.842845e-01
 4.854071e-01
 4.849783e-01
 4.837239e-01
 4.825849e-01
 4.811990e-01
 4.843826e-01
 4.797261e-01
 4.863589e-01
 4.807591e-01
 4.818157e-01
 4.830017e-01
 4.797080e-01
 4.845045e-01
 4.867193e-01
 4.843195e-01
 0.000000e+00
 0.000000e+00
 0.000000e+00
 0.000000e+00
 0.000000e+00
 0.000000e+00
 0.000000e+00
 0.000000e+00
 0.000000e+00
 0.000000e+00
 0.000000e+00
 0.000000e+00
 0.000000e+00
 0.000000e+00
 0.000000e+00
 0.000000e+00
 0.000000e+00
 0.000000e+00
 0.000000e+00
 0.000000e+00
 0.000000e+00
 0.000000e+00
 0.000000e+00
 0.000000e+00
 0.000000e+00
 0.000000e+00
 0.000000e+00
 0.000000e+00
 0.000000e+00
 0.000000e+00
 0.000000e+00
 0.000000e+00
 0.000000e+00
 0.000000e+00
 0.000000e+00
 0.000000e+00
 0.000000e+00
 0.000000e+00
 0.000000e+00
 0.000000e+00
 0.000000e+00
 0.000000e+00
 0.000000e+00
 0.000000e+00
 0.000000e+00
 0.000000e+00
 0.000000e+00
 0.000000e+00
 0.000000e+00
 0.000000e+00
 0.000000e+00
 0.000000e+00
 0.000000e+00
 0.000000e+00
 0.000000e+00
 0.000000e+00
 0.000000e+00
 0.000000e+00
 0.000000e+00
 0.000000e+00
 0.000000e+00
 0.000000e+00
 0.000000e+00
 0.000000e+00
 0.000000e+00
 0.000000e+00
 0.000000e+00
 0.000000e+00
 0.000000e+00
 0.000000e+00
 0.000000e+00
 0.000000e+00
 0.000000e+00
 0.000000e+00
 0.000000e+00
 0.000000e+00
 0.000000e+00
 0.000000e+00
 0.000000e+00
 0.000000e+00
 0.000000e+00
 0.000000e+00
 0.000000e+00
 0.000000e+00
 0.000000e+00
 0.000000e+00
 0.000000e+00
 0.000000e+00
 0.000000e+00
 0.000000e+00
 0.000000e+00
 0.000000e+00
 0.000000e+00
 0.000000e+00
 0.000000e+00
 0.000000e+00
 0.000000e+00
 0.000000e+00
 0.000000e+00
 0.000000e+00
 0.000000e+00
 0.000000e+00
 0.000000e+00
 0.000000e+00
 0.000000e+00
 0.000000e+00
 0.000000e+00
 0.000000e+00
 0.000000e+00
 0.000000e+00
 0.000000e+00
 0.000000e+00
 0.000000e+00
 0.000000e+00
 0.000000e+00
 0.000000e+00
 0.000000e+00
 0.000000e+00
 0.000000e+00
 0.000000e+00
 0.000000e+00
 0.000000e+00
 0.000000e+00
 0.000000e+00
 0.000000e+00
 0.000000e+00
 0.000000e+00
 0.000000e+00
 0.000000e+00
 0.000000e+00
 0.000000e+00
 0.000000e+00
 0.000000e+00
 0.000000e+00
 0.000000e+00
 0.000000e+00
 0.000000e+00
 0.000000e+00
 0.000000e+00
 0.000000e+00
 0.000000e+00
 0.000000e+00
 0.000000e+00
 0.000000e+00
 0.000000e+00
 0.000000e+00
 0.000000e+00
 0.000000e+00
 0.000000e+00
 0.000000e+00
 0.000000e+00
 0.000000e+00
 0.000000e+00
 0.000000e+00
 0.000000e+00
 0.000000e+00
 0.000000e+00
 0.000000e+00
 0.000000e+00
 0.000000e+00
 0.000000e+00
 0.000000e+00
 0.000000e+00
 0.000000e+00
 0.000000e+00
 0.000000e+00
 0.000000e+00
 0.000000e+00
 0.000000e+00
 0.000000e+00
 0.000000e+00
 0.000000e+00
 0.000000e+00
 0.000000e+00
 0.000000e+00
 0.000000e+00
 0.000000e+00
 0.000000e+00
 0.000000e+00
 0.000000e+00
 0.000000e+00
 0.000000e+00
 0.000000e+00
 0.000000e+00
 0.000000e+00
 0.000000e+00
 0.000000e+00
 0.000000e+00
 0.000000e+00
 0.000000e+00
 0.000000e+00
 0.000000e+00
 0.000000e+00
 0.000000e+00
 0.000000e+00
 0.000000e+00
 0.000000e+00
 0.000000e+00
 0.000000e+00
 0.000000e+00
 0.000000e+00
 0.000000e+00
 0.000000e+00
 0.000000e+00
 0.000000e+00
 0.000000e+00
 0.000000e+00
 0.000000e+00
 0.000000e+00
 0.000000e+00
 0.000000e+00
 0.000000e+00
 0.000000e+00
 0.000000e+00
 0.000000e+00
 0.000000e+00
 0.000000e+00
 0.000000e+00
 0.000000e+00
 0.000000e+00
 0.000000e+00
 0.000000e+00
 0.000000e+00
 0.000000e+00
 0.000000e+00
 0.000000e+00
 0.000000e+00
 0.000000e+00
 0.000000e+00
 0.000000e+00
 0.000000e+00
 0.000000e+00
 0.000000e+00
 0.000000e+00
 0.000000e+00
 0.000000e+00
 0.000000e+00
 0.000000e+00
 0.000000e+00
 0.000000e+00
 0.000000e+00
 0.000000e+00
 0.000000e+00
 0.000000e+00
 0.000000e+00
 0.000000e+00
 0.000000e+00
 0.000000e+00
 0.000000e+00
 0.000000e+00
 0.000000e+00
 0.000000e+00
 0.000000e+00
 0.000000e+00
 0.000000e+00
 0.000000e+00
 0.000000e+00
 0.000000e+00
 0.000000e+00
 0.000000e+00
 0.000000e+00
 0.000000e+00
 0.000000e+00
 0.000000e+00
 0.000000e+00
 0.000000e+00
 0.000000e+00
 0.000000e+00
 0.000000e+00
 0.000000e+00
 0.000000e+00
 0.000000e+00
 0.000000e+00
 0.000000e+00
 0.000000e+00
 0.000000e+00
 0.000000e+00
 0.000000e+00
 0.000000e+00
 0.000000e+00
 0.000000e+00
 0.000000e+00
 0.000000e+00
 0.000000e+00
 0.000000e+00
 0.000000e+00
 0.000000e+00
 0.000000e+00
 0.000000e+00
 0.000000e+00
 0.000000e+00
 0.000000e+00
 0.000000e+00
 0.000000e+00
 0.000000e+00
 0.000000e+00
 0.000000e+00
 0.000000e+00
 0.000000e+00
 0.000000e+00
 0.000000e+00
 0.000000e+00
 0.000000e+00
 0.000000e+00
 0.000000e+00
 0.000000e+00
 0.000000e+00
 0.000000e+00
 0.000000e+00
 0.000000e+00
 0.000000e+00
 0.000000e+00
 0.000000e+00
 0.000000e+00
 0.000000e+00
 0.000000e+00
 0.000000e+00
 0.000000e+00
 0.000000e+00
 0.000000e+00
 0.000000e+00
 0.000000e+00
 0.000000e+00
 0.000000e+00
 0.000000e+00
 0.000000e+00
 0.000000e+00
 0.000000e+00
 0.000000e+00
 0.000000e+00
 0.000000e+00
 0.000000e+00
 0.000000e+00
 0.000000e+00
 0.000000e+00
 0.000000e+00
 0.000000e+00
 0.000000e+00
 0.000000e+00
 0.000000e+00
 0.000000e+00
 0.000000e+00
 0.000000e+00
 0.000000e+00
 0.000000e+00
 0.000000e+00
 0.000000e+00
 0.000000e+00
 0.000000e+00
 0.000000e+00
 0.000000e+00
 0.000000e+00
 0.000000e+00
 0.000000e+00
 0.000000e+00
 0.000000e+00
 0.000000e+00
 0.000000e+00
 0.000000e+00
 0.000000e+00
 0.000000e+00
 0.000000e+00
 0.000000e+00
 0.000000e+00
 0.000000e+00
 0.000000e+00
 0.000000e+00
 0.000000e+00
 0.000000e+00
 0.000000e+00
 0.000000e+00
 0.000000e+00
 0.000000e+00
 0.000000e+00
 0.000000e+00
 0.000000e+00
 0.000000e+00
 0.000000e+00
 0.000000e+00
 0.000000e+00
 0.000000e+00
 0.000000e+00
 0.000000e+00
 0.000000e+00
 0.000000e+00
 0.000000e+00
 0.000000e+00
 0.000000e+00
 0.000000e+00
 0.000000e+00
 0.000000e+00
 0.000000e+00
 0.000000e+00
 0.000000e+00
 0.000000e+00
 0.000000e+00
 0.000000e+00
 0.000000e+00
 0.000000e+00
 0.000000e+00
 0.000000e+00
 0.000000e+00
 0.000000e+00
 0.000000e+00
 0.000000e+00
 0.000000e+00
 0.000000e+00
 0.000000e+00
 0.000000e+00
 0.000000e+00
 0.000000e+00
 0.000000e+00
 0.000000e+00
 0.000000e+00
 0.000000e+00
 0.000000e+00
 0.000000e+00
 0.000000e+00
 0.000000e+00
 0.000000e+00
 0.000000e+00
 0.000000e+00
 0.000000e+00
 0.000000e+00
 0.000000e+00
 0.000000e+00
 0.000000e+00
 0.000000e+00
 0.000000e+00
 0.000000e+00
 0.000000e+00
 0.000000e+00
 0.000000e+00
 0.000000e+00
 0.000000e+00
 0.000000e+00
 0.000000e+00
 0.000000e+00
 0.000000e+00
 0.000000e+00
 0.000000e+00
 0.000000e+00
 0.000000e+00
 0.000000e+00
 0.000000e+00
 0.000000e+00
 0.000000e+00
 0.000000e+00
 0.000000e+00
 0.000000e+00
 0.000000e+00
 0.000000e+00
 0.000000e+00
 0.000000e+00
 0.000000e+00
 0.000000e+00
 0.000000e+00
 0.000000e+00
 5.202904e-01
 5.237823e-01
 5.206260e-01
 5.192438e-01
 5.175089e-01
 5.166166e-01
 5.202777e-01
 5.223985e-01
 5.206018e-01
 5.201782e-01
 5.194895e-01
 5.199672e-01
 5.196801e-01
 5.165080e-01
 5.182671e-01
 5.182670e-01
 5.204717e-01
 5.197523e-01
 5.222669e-01
 5.186448e-01
 5.187158e-01
 5.215059e-01
 5.155962e-01
 5.215602e-01
 5.180177e-01
 5.185270e-01
 5.198492e-01
 5.198462e-01
 5.210797e-01
 5.220831e-01
 5.225193e-01
 5.235990e-01
 5.245016e-01
 5.243353e-01
 5.248337e-01
 5.254905e-01
 5.205587e-01
 5.181214e-01
 5.194342e-01
 5.209548e-01
 5.223974e-01
 5.242643e-01
 5.197016e-01
 5.188636e-01
 5.221731e-01
 5.187958e-01
 5.202765e-01
 5.214562e-01
 5.204387e-01
 5.246054e-01
 5.223537e-01
 5.176624e-01
 5.218890e-01
 5.218497e-01
 5.212811e-01
 5.229952e-01
 5.208311e-01
 5.193950e-01
 5.192849e-01
 5.204995e-01
 5.190413e-01
 5.179488e-01
 5.473639e-01
 5.467479e-01
 5.425961e-01
 5.405074e-01
 5.470115e-01
 5.461151e-01
 5.481009e-01
 5.495022e-01
 5.457917e-01
 5.462250e-01
 5.481598e-01
 5.458741e-01
 5.417622e-01
 5.490742e-01
 5.464565e-01
 5.466913e-01
 5.420796e-01
 5.456871e-01
 5.445018e-01
 5.469883e-01
 5.471071e-01
 5.431363e-01
 5.420563e-01
 5.417599e-01
 5.474629e-01
 5.454213e-01
 5.446164e-01
 5.455350e-01
 5.487716e-01
 5.492976e-01
 5.489712e-01
 5.495398e-01
 5.489103e-01
 5.466345e-01
 5.460272e-01
 5.486804e-01
 5.471254e-01
 5.463607e-01
 5.452585e-01
 5.473302e-01
 5.467776e-01
 5.425477e-01
 5.455851e-01
 5.477070e-01
 5.480553e-01
 5.486088e-01
 5.470100e-01
 5.462047e-01
 5.494372e-01
 5.446044e-01
 5.382879e-01
 5.476066e-01
 5.470962e-01
 5.470935e-01
 5.491252e-01
 5.472561e-01
 5.464601e-01
 5.454098e-01
 5.473769e-01
 5.447696e-01
 5.463542e-01
 5.481065e-01
 5.623661e-01
 5.648250e-01
 5.645704e-01
 5.564730e-01
 5.601105e-01
 5.603058e-01
 5.643244e-01
 5.639503e-01
 5.650582e-01
 5.652426e-01
 5.648294e-01
 5.632481e-01
 5.644657e-01
 5.641655e-01
 5.602440e-01
 5.613667e-01
 5.623376e-01
 5.631165e-01
 5.611326e-01
 5.625306e-01
 5.633979e-01
 5.628432e-01
 5.604980e-01
 5.616512e-01
 5.631548e-01
 5.630945e-01
 5.630704e-01
 5.642998e-01
 5.634185e-01
 5.643470e-01
 5.646410e-01
 5.636269e-01
 5.632656e-01
 5.627140e-01
 5.641411e-01
 5.652238e-01
 5.646988e-01
 5.634857e-01
 5.629674e-01
 5.618432e-01
 5.583147e-01
 5.630312e-01
 5.635022e-01
 5.614942e-01
 5.629794e-01
 5.618575e-01
 5.628459e-01
 5.568362e-01
 5.624841e-01
 5.624530e-01
 5.632480e-01
 5.651693e-01
 5.641907e-01
 5.663211e-01
 5.629407e-01
 5.630356e-01
 5.593793e-01
 5.629017e-01
 5.627128e-01
 5.614581e-01
 5.629294e-01
 5.624471e-01
 5.737758e-01
 5.728127e-01
 5.748948e-01
 5.712148e-01
 5.728083e-01
 5.750321e-01
 5.740840e-01
 5.746541e-01
 5.747464e-01
 5.738293e-01
 5.729191e-01
 5.738622e-01
 5.756883e-01
 5.742275e-01
 5.729296e-01
 5.726010e-01
 5.722738e-01
 5.717837e-01
 5.729764e-01
 5.740298e-01
 5.729394e-01
 5.726523e-01
 5.736758e-01
 5.744766e-01
 5.741281e-01
 5.754053e-01
 5.757752e-01
 5.744206e-01
 5.743307e-01
 5.764864e-01
 5.733311e-01
 5.737876e-01
 5.737134e-01
 5.728127e-01
 5.717096e-01
 5.718888e-01
 5.711930e-01
 5.762812e-01
 5.721879e-01
 5.747271e-01
 5.725368e-01
 5.755864e-01
 5.724754e-01
 5.746469e-01
 5.753234e-01
 5.746943e-01
 5.730416e-01
 5.707247e-01
 5.733924e-01
 5.745398e-01
 5.733236e-01
 5.732152e-01
 5.752195e-01
 5.745843e-01
 5.718704e-01
 5.763034e-01
 5.728945e-01
 5.705004e-01
 5.745855e-01
 5.729267e-01
 5.727074e-01
 5.797628e-01
 5.751170e-01
 5.791957e-01
 5.808750e-01
 5.798586e-01
 5.783708e-01
 5.737183e-01
 5.770231e-01
 5.776650e-01
 5.798902e-01
 5.775529e-01
 5.785213e-01
 5.786361e-01
 5.796130e-01
 5.786793e-01
 5.762431e-01
 5.779023e-01
 5.784716e-01
 5.780689e-01
 5.782355e-01
 5.766114e-01
 5.771362e-01
 5.743793e-01
 5.778596e-01
 5.797188e-01
 5.799793e-01
 5.786069e-01
 5.794931e-01
 5.794914e-01
 5.783912e-01
 5.766040e-01
 5.784218e-01
 5.782691e-01
 5.775885e-01
 5.784527e-01
 5.780863e-01
 5.758781e-01
 5.775716e-01
 5.753928e-01
 5.763102e-01
 5.783357e-01
 5.774045e-01
 5.785322e-01
 5.797328e-01
 5.786811e-01
 5.779550e-01
 5.808205e-01
 5.806233e-01
 5.789260e-01
 5.780186e-01
 5.809062e-01
 5.768135e-01
 5.758343e-01
 5.781785e-01
 5.777891e-01
 5.790665e-01
 5.784565e-01
 5.783082e-01
 5.770306e-01
 5.795548e-01
 5.790808e-01
 5.782079e-01
 5.784575e-01
 5.263426e-01
 5.385525e-01
 5.429889e-01
 5.377113e-01
 5.401263e-01
 5.315588e-01
 5.435789e-01
 5.373286e-01
 5.284097e-01
 5.449061e-01
 5.420553e-01
 5.290779e-01
 5.451520e-01
 5.384681e-01
 5.298563e-01
 5.442187e-01
 5.453341e-01
 5.357008e-01
 5.436491e-01
 5.436404e-01
 5.299152e-01
 5.377539e-01
 5.353435e-01
 5.340337e-01
 5.827676e-01
 5.871928e-01
 5.770628e-01
 5.767401e-01
 5.900285e-01
 5.750991e-01
 5.696021e-01
 5.899850e-01
 5.774498e-01
 5.711435e-01
 5.765424e-01
 5.701831e-01
 5.755797e-01
 5.749041e-01
 5.851566e-01
 5.672969e-01
 6.101292e-01
 6.106846e-01
 6.164043e-01
 6.045151e-01
 6.149548e-01
 5.964901e-01
 5.336821e-01
 5.383432e-01
 5.317578e-01
 5.200349e-01
 5.334794e-01
 5.241080e-01
 5.328484e-01
 5.222869e-01
 5.343253e-01
 5.221476e-01
 5.332533e-01
 5.235012e-01
 5.316038e-01
 5.263141e-01
 5.426979e-01
 5.425641e-01
 5.449638e-01
 5.245599e-01
 5.269283e-01
 5.253100e-01
 5.308148e-01
 5.311233e-01
 5.284666e-01
 5.282154e-01
 5.288667e-01
 5.340097e-01
 5.304538e-01
 5.323221e-01
 5.286734e-01
 5.365180e-01
 5.649355e-01
 5.542410e-01
 5.626621e-01
 5.619698e-01
 5.681124e-01
 5.554046e-01
 5.653998e-01
 5.569455e-01
 5.714089e-01
 5.571312e-01
 5.579157e-01
 5.628985e-01
 5.861119e-01
 5.618138e-01
 5.782562e-01
 5.595946e-01
 5.720601e-01
 5.643344e-01
 5.669072e-01
 5.680342e-01
 5.792537e-01
 5.771048e-01
 5.850123e-01
 5.947453e-01
 5.888260e-01
 5.880132e-01
 5.873943e-01
 5.950815e-01
 6.063572e-01
 5.902782e-01
 5.919072e-01
 5.965197e-01
 5.925956e-01
 5.890067e-01
 6.098883e-01
 6.090677e-01
 6.142132e-01
 6.099282e-01
 6.129598e-01
 6.040401e-01
 6.166229e-01
 8.174083e-02
 5.663917e-02
 6.657097e-03
 2.618991e-02
 1.556532e-02
 3.286768e-02
 3.098992e-03
 2.299831e-02
 6.961206e-03
 1.791404e-02
 2.008683e-02
 4.747042e-03
 1.516541e-02
 1.233595e-02
 7.067803e-03
 1.214003e-02
 8.912684e-03
 1.052354e-02
 1.904298e-02
 1.431529e-02
 2.481105e-02
 2.827226e-02
 1.309035e-02
 2.159567e-02
 1.745959e-02
 1.561520e-02
 1.939124e-02
 1.863606e-02
 1.330485e-02
 1.149506e-02
 3.325852e-01
 3.888083e-01
 2.036902e-01
 1.259008e-01
 7.984317e-02
 1.940113e-02
 6.123210e-02
 9.714195e-02
 7.954093e-02
 2.411020e-02
 4.240900e-02
 9.037059e-02
 2.529463e-02
 1.412485e-02
 1.025606e-01
 1.803722e-02
 5.785259e-02
 1.751802e-02
 1.656371e-02
 5.885528e-02
 7.669285e-02
 1.907700e-02
 1.042988e-01
 7.392005e-02
 2.933436e-02
 8.633658e-02
 2.453335e-02
 8.945670e-02
 6.236364e-02
 9.451845e-02
 7.940488e-02
 2.241599e-02
 9.575538e-02
 7.707774e-02
 2.577636e-02
 3.057701e-02
 2.252979e-01
 1.907433e-01
 1.025475e-01
 1.436870e-01
 2.243656e-02
 1.845931e-02
 4.632459e-02
 3.509719e-02
 1.421650e-02
 8.516915e-02
 1.001075e-01
 1.226446e-01
 7.027575e-02
 2.116376e-02
 9.946833e-02
 8.155714e-02
 8.409023e-02
 5.311030e-02
 2.090570e-02
 1.045188e-01
 9.403664e-02
 1.183496e-01
 3.334884e-02
 5.198206e-02
 3.997092e-02
 1.590102e-02
 2.608912e-02
 2.196038e-01
 1.755446e-01
 1.185197e-01
 1.180485e-01
 1.581378e-02
 2.090287e-02
 4.373238e-02
 4.542580e-02
 4.686804e-02
 8.265953e-02
 1.222430e-01
 1.525049e-02
 1.330409e-01
 1.872600e-01
 1.014826e-01
 7.098385e-02
 2.574522e-02
 6.030168e-02
 4.241098e-02
 2.168509e-01
 6.171212e-02
 3.869184e-02
 1.061072e-01
 9.166706e-02
 1.659158e-01
 9.197433e-02
 2.025797e-01
 9.214278e-02
 4.044788e-02
 2.999894e-02
 2.919007e-01
 2.659008e-01
 3.157368e-01
 3.337665e-02
 5.507084e-02
 3.315261e-02
 1.647827e-02
 1.435629e-02
 2.685377e-02
 1.343058e-01
 4.075885e-02
 9.200649e-02
 9.887900e-02
 7.465634e-02
 8.094111e-02
 1.064696e-01
 2.150729e-01
 9.177830e-02
 4.351189e-02
 7.313274e-02
 1.897193e-01
 1.837348e-01
 2.584955e-02
 1.533701e-02
 6.586662e-02
 1.816745e-01
 1.338335e-01
 4.033777e-02
 1.675498e-02
 8.098453e-02
 5.627283e-02
 5.492003e-02
 4.195073e-02
 5.650529e-02
 6.949949e-02
 8.079419e-02
 9.772329e-02
 1.212905e-01
 9.748146e-02
 7.116697e-03
 1.052899e-01
 9.926430e-02
 1.007671e-01
 9.954773e-02
 2.354788e-01
 9.195921e-02
 5.538236e-02
 9.654491e-02
 8.795816e-02
 2.229542e-01
 2.449138e-01
 2.630073e-01
 1.089982e-01
 1.280366e-01
 1.958719e-01
 1.129099e-01
 6.268454e-02
 2.475619e-01
 2.544248e-01
 1.320766e-02
 2.514002e-01
 1.297515e-01
 1.355580e-01
 2.181586e-01
 1.992025e-01
 1.919508e-01
 1.207690e-01
 1.138762e-01
 1.800257e-01
 1.342226e-01
 2.218283e-01
 2.005032e-01
 1.398338e-01
 1.087845e-01
 1.677613e-01
 9.674765e-02
 6.184523e-02
 3.190530e-01
 1.675434e-01
 1.670883e-01
 1.701582e-01
 8.918064e-02
 9.478876e-02
 5.182259e-02
 6.418569e-02
 8.892916e-02
 1.160690e-01
 1.553723e-01
 2.347660e-01
 2.454399e-01
 1.714126e-01
 8.416997e-02
 9.629890e-02
 1.729596e-01
 1.093827e-01
 1.186240e-01
 1.099319e-01
 1.239151e-01
 1.741577e-01
 1.010388e-01
 3.896807e-01
 3.469680e-01
 2.074240e-01
 6.690356e-02
 4.863338e-02
 3.216467e-02
 7.525364e-02
 9.604759e-02
 7.552362e-02
 4.178483e-02
 7.551153e-02
 6.992100e-02
 4.564641e-02
 1.099779e-01
 1.120593e-01
 8.519702e-02
 2.891796e-01
 4.826060e-02
 8.479570e-02
 6.142821e-02
 7.591503e-02
 7.826725e-02
 9.216171e-02
 1.361553e-01
 2.749052e-01
 1.983019e-01
 8.172446e-02
 5.897460e-02
 9.955299e-02
 9.029001e-02
 5.688468e-02
 1.423639e-01
 1.202114e-01
 1.091707e-01
 1.002698e-01
 4.271279e-01
 2.961609e-01
 3.430317e-01
 2.172873e-01
 1.675135e-01
 7.234328e-02
 7.900680e-02
 6.251865e-02
 2.046711e-01
 2.537796e-01
 2.315118e-01
 2.085946e-01
 8.776613e-02
 6.137493e-02
 7.428362e-02
 4.880822e-02
 6.118215e-02
 5.528840e-02
 4.608142e-02
 4.153980e-02
 7.965739e-02
 5.919596e-02
 1.850606e-01
 1.488635e-01
 3.404390e-02
 4.103445e-02
 1.780210e-01
 2.459529e-01
 4.109070e-02
 1.249444e-01
 9.565051e-02
 9.249116e-02
 1.217758e-01
 3.166629e-02
 9.174149e-02
 9.239694e-02
 1.017913e-01
 5.967807e-02
 7.659949e-02
 8.304384e-02
 3.463743e-01
 8.786142e-02
 8.158730e-02
 1.034548e-01
 7.621539e-02
 5.029689e-01
 4.839658e-01
 4.101608e-01
 3.517112e-01
 3.544318e-01
 1.927037e-01
 1.534576e-01
 5.170769e-02
 5.346061e-02
 5.107461e-02
 2.825761e-02
 4.995237e-02
 4.262633e-02
 3.381802e-01
 3.954981e-01
 3.196117e-01
 2.610497e-01
 3.086071e-01
 3.143782e-01
 2.708520e-01
 1.547360e-01
 2.653964e-01
 1.710241e-01
 2.393807e-01
 2.080730e-01
 7.316627e-02
 4.300951e-02
 6.395924e-02
 5.408952e-02
 6.036503e-02
 2.052105e-01
 3.589864e-01
 3.457384e-01
 3.035353e-01
 3.724862e-01
 3.383187e-01
 2.272447e-01
 2.706421e-01
 2.563869e-01
 2.065854e-01
 1.830293e-01
 6.305234e-02
 5.663161e-02
 1.790256e-01
 1.342144e-01
 1.598770e-01
 2.992508e-01
 4.612922e-01
 4.637937e-01
 3.514546e-01
 3.830230e-01
 3.080442e-01
 3.613159e-01
 2.290540e-01
 3.008922e-01
 2.287798e-01
 2.304673e-01
 1.722817e-01
 1.180514e-01
 1.542622e-02
 2.131956e-02
 7.355227e-02
 3.805858e-02
 5.442305e-02
 3.792359e-02
 1.552162e-02
 1.301031e-01
 2.804418e-01
 2.966158e-01
 3.841424e-01
 2.783437e-01
 2.771602e-01
 3.464315e-01
 2.556299e-01
 3.348365e-01
 2.677570e-01
 2.220164e-01
 1.861081e-01
 1.775881e-01
 2.800328e-01
 3.366035e-01
 2.341866e-01
 1.414113e-01
 2.615889e-01
 3.208213e-01
 1.990237e-01
 1.240380e-01
 4.019417e-01
 2.994815e-01
 3.431005e-01
 1.697542e-01
 2.248624e-01
 2.880194e-01
 3.007527e-01
 1.745130e-01
 1.684449e-01
 2.794761e-01
 4.411229e-01
 3.710690e-01
 2.788899e-01
 1.846556e-01
 3.980314e-01
 4.103136e-01
 5.004464e-01
 3.002363e-01
 2.334117e-01
 4.232189e-01
 2.906043e-01
 3.333609e-01
 2.164621e-01